/*--------------------------------*- C++ -*----------------------------------*\
| =========                 |                                                 |
| \\      /  F ield         | OpenFOAM: The Open Source CFD Toolbox           |
|  \\    /   O peration     | Version:  2006                                  |
|   \\  /    A nd           | Website:  www.openfoam.com                      |
|    \\/     M anipulation  |                                                 |
\*---------------------------------------------------------------------------*/
FoamFile
{
    version     2.0;
    format      ascii;
    class       polyBoundaryMesh;
    location    "constant/polyMesh";
    object      boundary;
}
// * * * * * * * * * * * * * * * * * * * * * * * * * * * * * * * * * * * * * //

4
(
    frontAndBack
    {
        type            empty;
        inGroups        1(wall);
        nFaces          4608;
        startFace       3358;
    }
    inlet
    {
        type            patch;
        physicalType    patch;
        nFaces          5;
        startFace       7966;
    }
    walls
    {
        type            patch;
        physicalType    patch;
        nFaces          178;
        startFace       7971;
    }
    outlet
    {
        type            patch;
        physicalType    patch;
        nFaces          13;
        startFace       8149;
    }
)

// ************************************************************************* //
