/*--------------------------------*- C++ -*----------------------------------*\
| =========                 |                                                 |
| \\      /  F ield         | OpenFOAM: The Open Source CFD Toolbox           |
|  \\    /   O peration     | Version:  2006                                  |
|   \\  /    A nd           | Website:  www.openfoam.com                      |
|    \\/     M anipulation  |                                                 |
\*---------------------------------------------------------------------------*/
FoamFile
{
    version     2.0;
    format      ascii;
    class       volVectorField;
    location    "0";
    object      Ulift;
}
// * * * * * * * * * * * * * * * * * * * * * * * * * * * * * * * * * * * * * //

dimensions      [0 1 -1 0 0 0 0];


internalField   nonuniform List<vector> 
10400
(
(9.00286 -0.932487 0)
(18.0346 -0.196481 0)
(20.0397 -0.0541586 0)
(20.6009 -0.0159889 0)
(20.7674 -0.00482591 0)
(20.8178 -0.00146834 0)
(20.8331 -0.000448157 0)
(20.8378 -0.000137032 0)
(20.8392 -4.2197e-05 0)
(20.8397 -1.39015e-05 0)
(20.8398 -7.51868e-06 0)
(20.84 -1.29875e-05 0)
(20.8404 -3.89432e-05 0)
(20.8417 -0.000126432 0)
(20.8461 -0.00041451 0)
(20.8603 -0.00136706 0)
(20.9078 -0.00457096 0)
(21.0714 -0.015871 0)
(21.6931 -0.0618407 0)
(25.0956 -0.363479 0)
(10.5792 -2.62341 0)
(18.1444 -0.580167 0)
(20.0623 -0.160848 0)
(20.6071 -0.0475446 0)
(20.7692 -0.0143558 0)
(20.8183 -0.0043685 0)
(20.8333 -0.00133339 0)
(20.8378 -0.000407717 0)
(20.8392 -0.000125551 0)
(20.8397 -4.13622e-05 0)
(20.8398 -2.23709e-05 0)
(20.84 -3.86424e-05 0)
(20.8404 -0.000115868 0)
(20.8417 -0.000376162 0)
(20.8459 -0.00123315 0)
(20.8598 -0.00406602 0)
(20.906 -0.0135864 0)
(21.0642 -0.0470713 0)
(21.6496 -0.181527 0)
(24.2095 -0.989098 0)
(12.1489 -3.98494 0)
(18.3424 -0.938479 0)
(20.1063 -0.262756 0)
(20.6192 -0.0778485 0)
(20.7728 -0.0235231 0)
(20.8194 -0.00716004 0)
(20.8336 -0.00218567 0)
(20.8379 -0.000668348 0)
(20.8393 -0.000205812 0)
(20.8397 -6.78041e-05 0)
(20.8398 -3.6672e-05 0)
(20.84 -6.33449e-05 0)
(20.8404 -0.000189933 0)
(20.8416 -0.000616569 0)
(20.8456 -0.00202091 0)
(20.8588 -0.00666048 0)
(20.9025 -0.0222273 0)
(21.0504 -0.076694 0)
(21.5753 -0.290696 0)
(23.4439 -1.43349 0)
(13.6944 -5.05226 0)
(18.6097 -1.25975 0)
(20.1699 -0.356996 0)
(20.637 -0.106112 0)
(20.7781 -0.0320973 0)
(20.821 -0.00977363 0)
(20.8341 -0.00298393 0)
(20.8381 -0.000912497 0)
(20.8393 -0.000281003 0)
(20.8397 -9.25761e-05 0)
(20.8398 -5.007e-05 0)
(20.84 -8.64862e-05 0)
(20.8403 -0.000259309 0)
(20.8415 -0.000841699 0)
(20.8452 -0.00275812 0)
(20.8573 -0.0090842 0)
(20.8973 -0.0302605 0)
(21.0306 -0.103824 0)
(21.48 -0.385353 0)
(22.7812 -1.73505 0)
(15.2011 -5.85658 0)
(18.9293 -1.53587 0)
(20.2505 -0.44105 0)
(20.6598 -0.131612 0)
(20.7849 -0.0398638 0)
(20.823 -0.0121445 0)
(20.8347 -0.00370846 0)
(20.8383 -0.00113415 0)
(20.8394 -0.00034927 0)
(20.8397 -0.000115068 0)
(20.8398 -6.22349e-05 0)
(20.84 -0.000107496 0)
(20.8403 -0.000322286 0)
(20.8413 -0.00104599 0)
(20.8446 -0.00342644 0)
(20.8553 -0.0112759 0)
(20.8906 -0.0374751 0)
(21.006 -0.127704 0)
(21.3714 -0.46332 0)
(22.2068 -1.92417 0)
(16.6564 -6.42568 0)
(19.2866 -1.76158 0)
(20.3454 -0.512832 0)
(20.6871 -0.153711 0)
(20.793 -0.0466299 0)
(20.8255 -0.0142141 0)
(20.8355 -0.00434141 0)
(20.8385 -0.00132784 0)
(20.8394 -0.000408933 0)
(20.8397 -0.000134726 0)
(20.8398 -7.2867e-05 0)
(20.8399 -0.000125857 0)
(20.8402 -0.000377311 0)
(20.8411 -0.00122438 0)
(20.8439 -0.00400929 0)
(20.853 -0.0131809 0)
(20.8827 -0.0436892 0)
(20.9774 -0.147751 0)
(21.2554 -0.523705 0)
(21.7085 -2.02484 0)
(18.0497 -6.78445 0)
(19.6684 -1.93393 0)
(20.4515 -0.570714 0)
(20.7181 -0.171871 0)
(20.8023 -0.0522293 0)
(20.8283 -0.0159314 0)
(20.8363 -0.00486718 0)
(20.8388 -0.0014888 0)
(20.8395 -0.000458523 0)
(20.8398 -0.000151066 0)
(20.8398 -8.17045e-05 0)
(20.8399 -0.000141117 0)
(20.8401 -0.000423029 0)
(20.8408 -0.0013725 0)
(20.8431 -0.00449236 0)
(20.8504 -0.0147524 0)
(20.8738 -0.0487541 0)
(20.946 -0.163549 0)
(21.1368 -0.566508 0)
(21.2759 -2.05605 0)
(19.3721 -6.95534 0)
(20.0633 -2.05178 0)
(20.5656 -0.613527 0)
(20.7519 -0.185669 0)
(20.8125 -0.0565264 0)
(20.8314 -0.0172544 0)
(20.8373 -0.00527287 0)
(20.8391 -0.00161307 0)
(20.8396 -0.000496819 0)
(20.8398 -0.000163686 0)
(20.8398 -8.853e-05 0)
(20.8399 -0.000152901 0)
(20.8401 -0.000458317 0)
(20.8406 -0.00148671 0)
(20.8422 -0.00486386 0)
(20.8475 -0.0159531 0)
(20.8641 -0.0525566 0)
(20.9127 -0.174844 0)
(21.0189 -0.592335 0)
(20.9003 -2.03279 0)
(20.6158 -6.95871 0)
(20.4612 -2.1155 0)
(20.6848 -0.640553 0)
(20.7877 -0.1948 0)
(20.8233 -0.0594194 0)
(20.8347 -0.0181511 0)
(20.8383 -0.00554852 0)
(20.8394 -0.0016976 0)
(20.8397 -0.000522878 0)
(20.8398 -0.000172275 0)
(20.8398 -9.31754e-05 0)
(20.8399 -0.000160918 0)
(20.84 -0.000482308 0)
(20.8403 -0.00156422 0)
(20.8413 -0.00511486 0)
(20.8444 -0.016755 0)
(20.8539 -0.0550202 0)
(20.8785 -0.181527 0)
(20.9045 -0.602177 0)
(20.5747 -1.9669 0)
(21.7744 -6.81314 0)
(20.8531 -2.12658 0)
(20.8057 -0.651498 0)
(20.8246 -0.199081 0)
(20.8346 -0.0608418 0)
(20.8382 -0.0185998 0)
(20.8393 -0.00568743 0)
(20.8397 -0.00174031 0)
(20.8398 -0.00053606 0)
(20.8398 -0.000176622 0)
(20.8398 -9.55263e-05 0)
(20.8399 -0.000164972 0)
(20.8399 -0.000494416 0)
(20.84 -0.00160316 0)
(20.8403 -0.00523947 0)
(20.8412 -0.017141 0)
(20.8435 -0.0561051 0)
(20.8443 -0.183614 0)
(20.7957 -0.597268 0)
(20.2928 -1.86771 0)
(22.8422 -6.53572 0)
(21.2314 -2.08748 0)
(20.9257 -0.646464 0)
(20.8616 -0.198453 0)
(20.8459 -0.0607643 0)
(20.8416 -0.0185903 0)
(20.8404 -0.00568626 0)
(20.84 -0.00174017 0)
(20.8399 -0.000536043 0)
(20.8399 -0.00017662 0)
(20.8398 -9.5525e-05 0)
(20.8398 -0.000164964 0)
(20.8398 -0.000494347 0)
(20.8397 -0.0016026 0)
(20.8393 -0.00523492 0)
(20.8381 -0.0171041 0)
(20.8331 -0.0558065 0)
(20.8109 -0.18123 0)
(20.694 -0.578972 0)
(20.0496 -1.74259 0)
(23.8148 -6.14226 0)
(21.5893 -2.0014 0)
(21.0419 -0.625914 0)
(20.8978 -0.192976 0)
(20.8571 -0.0591943 0)
(20.845 -0.0181234 0)
(20.8414 -0.00554512 0)
(20.8403 -0.00169718 0)
(20.84 -0.000522827 0)
(20.8399 -0.000172269 0)
(20.8398 -9.31716e-05 0)
(20.8398 -0.000160894 0)
(20.8397 -0.000482109 0)
(20.8394 -0.0015626 0)
(20.8384 -0.00510168 0)
(20.8349 -0.0166479 0)
(20.823 -0.0541529 0)
(20.7789 -0.17459 0)
(20.6005 -0.548709 0)
(19.8409 -1.59735 0)
(24.688 -5.64748 0)
(21.9209 -1.87211 0)
(21.1517 -0.590637 0)
(20.9324 -0.182825 0)
(20.8678 -0.0561758 0)
(20.8483 -0.0172113 0)
(20.8424 -0.00526757 0)
(20.8406 -0.00161242 0)
(20.8401 -0.000496739 0)
(20.8399 -0.000163676 0)
(20.8398 -8.85242e-05 0)
(20.8398 -0.000152863 0)
(20.8396 -0.000458007 0)
(20.8391 -0.00148419 0)
(20.8374 -0.00484333 0)
(20.8319 -0.0157861 0)
(20.8134 -0.0512035 0)
(20.749 -0.163987 0)
(20.5162 -0.507906 0)
(19.663 -1.43655 0)
(25.4586 -5.06521 0)
(22.2214 -1.70385 0)
(21.253 -0.541709 0)
(20.9646 -0.16828 0)
(20.8778 -0.0517872 0)
(20.8514 -0.015877 0)
(20.8434 -0.00486051 0)
(20.8409 -0.00148798 0)
(20.8402 -0.000458422 0)
(20.8399 -0.000151053 0)
(20.8398 -8.16973e-05 0)
(20.8398 -0.000141069 0)
(20.8395 -0.000422639 0)
(20.8388 -0.00136933 0)
(20.8366 -0.00446648 0)
(20.8291 -0.0145419 0)
(20.8045 -0.0470452 0)
(20.7218 -0.149773 0)
(20.4415 -0.457967 0)
(19.5131 -1.26379 0)
(26.1238 -4.4085 0)
(22.4863 -1.50122 0)
(21.3437 -0.480458 0)
(20.9936 -0.149721 0)
(20.8868 -0.0461395 0)
(20.8542 -0.0141538 0)
(20.8442 -0.00433401 0)
(20.8412 -0.00132693 0)
(20.8403 -0.000408822 0)
(20.84 -0.000134712 0)
(20.8398 -7.28589e-05 0)
(20.8397 -0.000125804 0)
(20.8395 -0.000376878 0)
(20.8386 -0.00122086 0)
(20.8358 -0.0039806 0)
(20.8266 -0.0129473 0)
(20.7965 -0.0417896 0)
(20.6977 -0.132348 0)
(20.3769 -0.400253 0)
(19.3886 -1.08192 0)
(26.6813 -3.68981 0)
(22.7124 -1.26912 0)
(21.422 -0.408424 0)
(21.0189 -0.127613 0)
(20.8947 -0.039373 0)
(20.8566 -0.0120842 0)
(20.845 -0.00370106 0)
(20.8414 -0.00113324 0)
(20.8403 -0.000349159 0)
(20.84 -0.000115054 0)
(20.8398 -6.22268e-05 0)
(20.8397 -0.000107443 0)
(20.8394 -0.000321853 0)
(20.8384 -0.00104246 0)
(20.8351 -0.00339773 0)
(20.8244 -0.0110421 0)
(20.7895 -0.0355697 0)
(20.677 -0.112152 0)
(20.3228 -0.336074 0)
(19.2877 -0.893182 0)
(27.1295 -2.92104 0)
(22.8965 -1.01265 0)
(21.4864 -0.32733 0)
(21.0398 -0.102496 0)
(20.9013 -0.0316542 0)
(20.8587 -0.00971925 0)
(20.8456 -0.00297725 0)
(20.8416 -0.000911677 0)
(20.8404 -0.000280902 0)
(20.84 -9.25632e-05 0)
(20.8398 -5.00629e-05 0)
(20.8397 -8.64384e-05 0)
(20.8394 -0.000258918 0)
(20.8382 -0.000838519 0)
(20.8346 -0.00273222 0)
(20.8226 -0.0088731 0)
(20.7838 -0.0285365 0)
(20.6601 -0.0896543 0)
(20.2793 -0.266688 0)
(19.2088 -0.699371 0)
(27.4668 -2.11373 0)
(23.0366 -0.737066 0)
(21.5357 -0.239041 0)
(21.0558 -0.0749728 0)
(20.9063 -0.0231713 0)
(20.8602 -0.00711688 0)
(20.8461 -0.00218037 0)
(20.8418 -0.000667697 0)
(20.8404 -0.000205733 0)
(20.84 -6.7794e-05 0)
(20.8398 -3.66664e-05 0)
(20.8397 -6.3307e-05 0)
(20.8393 -0.000189623 0)
(20.8381 -0.000614045 0)
(20.8341 -0.00200035 0)
(20.8212 -0.00649281 0)
(20.7794 -0.0208556 0)
(20.6472 -0.0653451 0)
(20.2466 -0.193308 0)
(19.1506 -0.501938 0)
(27.6922 -1.27911 0)
(23.1309 -0.447752 0)
(21.5691 -0.145534 0)
(21.0668 -0.0456953 0)
(20.9097 -0.0141298 0)
(20.8613 -0.00434079 0)
(20.8464 -0.00132999 0)
(20.8419 -0.0004073 0)
(20.8405 -0.0001255 0)
(20.84 -4.13558e-05 0)
(20.8398 -2.23674e-05 0)
(20.8397 -3.86182e-05 0)
(20.8393 -0.000115669 0)
(20.838 -0.000374542 0)
(20.8338 -0.00121994 0)
(20.8202 -0.00395831 0)
(20.7765 -0.0127039 0)
(20.6386 -0.0397316 0)
(20.2247 -0.117105 0)
(19.1123 -0.302085 0)
(27.8051 -0.428177 0)
(23.1783 -0.150171 0)
(21.586 -0.0488644 0)
(21.0723 -0.0153511 0)
(20.9115 -0.00474802 0)
(20.8618 -0.00145879 0)
(20.8466 -0.000446985 0)
(20.8419 -0.000136889 0)
(20.8405 -4.21797e-05 0)
(20.84 -1.38995e-05 0)
(20.8398 -7.51772e-06 0)
(20.8397 -1.29794e-05 0)
(20.8393 -3.8875e-05 0)
(20.838 -0.000125874 0)
(20.8337 -0.00040996 0)
(20.8197 -0.00132994 0)
(20.775 -0.00426655 0)
(20.6342 -0.0133315 0)
(20.2138 -0.0392213 0)
(19.0932 -0.100845 0)
(27.8051 0.428177 0)
(23.1783 0.150171 0)
(21.586 0.0488644 0)
(21.0723 0.0153511 0)
(20.9115 0.00474802 0)
(20.8618 0.00145879 0)
(20.8466 0.000446984 0)
(20.8419 0.000136888 0)
(20.8405 4.2179e-05 0)
(20.84 1.38989e-05 0)
(20.8398 7.517e-06 0)
(20.8397 1.29786e-05 0)
(20.8393 3.88741e-05 0)
(20.838 0.000125873 0)
(20.8337 0.000409959 0)
(20.8197 0.00132994 0)
(20.775 0.00426655 0)
(20.6342 0.0133315 0)
(20.2138 0.0392213 0)
(19.0932 0.100845 0)
(27.6922 1.27911 0)
(23.1309 0.447752 0)
(21.5691 0.145534 0)
(21.0668 0.0456953 0)
(20.9097 0.0141298 0)
(20.8613 0.00434079 0)
(20.8464 0.00132999 0)
(20.8419 0.000407299 0)
(20.8405 0.0001255 0)
(20.84 4.13551e-05 0)
(20.8398 2.23667e-05 0)
(20.8397 3.86174e-05 0)
(20.8393 0.000115669 0)
(20.838 0.000374541 0)
(20.8338 0.00121994 0)
(20.8202 0.00395831 0)
(20.7765 0.0127039 0)
(20.6386 0.0397316 0)
(20.2247 0.117105 0)
(19.1123 0.302085 0)
(27.4668 2.11373 0)
(23.0366 0.737066 0)
(21.5357 0.239041 0)
(21.0558 0.0749728 0)
(20.9063 0.0231713 0)
(20.8602 0.00711688 0)
(20.8461 0.00218037 0)
(20.8418 0.000667696 0)
(20.8404 0.000205732 0)
(20.84 6.77933e-05 0)
(20.8398 3.66657e-05 0)
(20.8397 6.33062e-05 0)
(20.8393 0.000189622 0)
(20.8381 0.000614044 0)
(20.8341 0.00200035 0)
(20.8212 0.00649281 0)
(20.7794 0.0208556 0)
(20.6472 0.0653451 0)
(20.2466 0.193308 0)
(19.1506 0.501938 0)
(27.1295 2.92104 0)
(22.8965 1.01265 0)
(21.4864 0.32733 0)
(21.0398 0.102496 0)
(20.9013 0.0316542 0)
(20.8587 0.00971925 0)
(20.8456 0.00297725 0)
(20.8416 0.000911676 0)
(20.8404 0.000280902 0)
(20.84 9.25626e-05 0)
(20.8398 5.00622e-05 0)
(20.8397 8.64376e-05 0)
(20.8394 0.000258918 0)
(20.8382 0.000838518 0)
(20.8346 0.00273222 0)
(20.8226 0.00887309 0)
(20.7838 0.0285365 0)
(20.6601 0.0896543 0)
(20.2793 0.266688 0)
(19.2088 0.699371 0)
(26.6813 3.68981 0)
(22.7124 1.26912 0)
(21.422 0.408424 0)
(21.0189 0.127613 0)
(20.8947 0.039373 0)
(20.8566 0.0120842 0)
(20.845 0.00370106 0)
(20.8414 0.00113324 0)
(20.8403 0.000349158 0)
(20.84 0.000115053 0)
(20.8398 6.22261e-05 0)
(20.8397 0.000107442 0)
(20.8394 0.000321852 0)
(20.8384 0.00104246 0)
(20.8351 0.00339773 0)
(20.8244 0.0110421 0)
(20.7895 0.0355697 0)
(20.677 0.112152 0)
(20.3228 0.336074 0)
(19.2877 0.893182 0)
(26.1238 4.4085 0)
(22.4863 1.50122 0)
(21.3437 0.480458 0)
(20.9936 0.149721 0)
(20.8868 0.0461395 0)
(20.8542 0.0141538 0)
(20.8442 0.00433401 0)
(20.8412 0.00132693 0)
(20.8403 0.000408821 0)
(20.84 0.000134711 0)
(20.8398 7.28582e-05 0)
(20.8397 0.000125803 0)
(20.8395 0.000376877 0)
(20.8386 0.00122086 0)
(20.8358 0.0039806 0)
(20.8266 0.0129473 0)
(20.7965 0.0417896 0)
(20.6977 0.132348 0)
(20.3769 0.400253 0)
(19.3886 1.08192 0)
(25.4586 5.06521 0)
(22.2214 1.70385 0)
(21.253 0.541709 0)
(20.9646 0.16828 0)
(20.8778 0.0517872 0)
(20.8514 0.015877 0)
(20.8434 0.00486051 0)
(20.8409 0.00148798 0)
(20.8402 0.000458422 0)
(20.8399 0.000151053 0)
(20.8398 8.16966e-05 0)
(20.8398 0.000141069 0)
(20.8395 0.000422638 0)
(20.8388 0.00136932 0)
(20.8366 0.00446648 0)
(20.8291 0.0145419 0)
(20.8045 0.0470452 0)
(20.7218 0.149773 0)
(20.4415 0.457967 0)
(19.5131 1.26379 0)
(24.688 5.64748 0)
(21.9209 1.87211 0)
(21.1517 0.590637 0)
(20.9324 0.182825 0)
(20.8678 0.0561758 0)
(20.8483 0.0172113 0)
(20.8424 0.00526757 0)
(20.8406 0.00161242 0)
(20.8401 0.000496738 0)
(20.8399 0.000163675 0)
(20.8398 8.85235e-05 0)
(20.8398 0.000152862 0)
(20.8396 0.000458006 0)
(20.8391 0.00148419 0)
(20.8374 0.00484333 0)
(20.8319 0.0157861 0)
(20.8134 0.0512035 0)
(20.749 0.163987 0)
(20.5162 0.507906 0)
(19.663 1.43655 0)
(23.8148 6.14226 0)
(21.5893 2.0014 0)
(21.0419 0.625914 0)
(20.8978 0.192976 0)
(20.8571 0.0591943 0)
(20.845 0.0181234 0)
(20.8414 0.00554512 0)
(20.8403 0.00169718 0)
(20.84 0.000522826 0)
(20.8399 0.000172268 0)
(20.8398 9.3171e-05 0)
(20.8398 0.000160893 0)
(20.8397 0.000482108 0)
(20.8394 0.0015626 0)
(20.8384 0.00510168 0)
(20.8349 0.0166479 0)
(20.823 0.0541529 0)
(20.7789 0.17459 0)
(20.6005 0.548709 0)
(19.8409 1.59735 0)
(22.8422 6.53572 0)
(21.2314 2.08748 0)
(20.9257 0.646464 0)
(20.8616 0.198453 0)
(20.8459 0.0607643 0)
(20.8416 0.0185903 0)
(20.8404 0.00568626 0)
(20.84 0.00174017 0)
(20.8399 0.000536042 0)
(20.8399 0.000176619 0)
(20.8398 9.55244e-05 0)
(20.8398 0.000164963 0)
(20.8398 0.000494347 0)
(20.8397 0.0016026 0)
(20.8393 0.00523492 0)
(20.8381 0.0171041 0)
(20.8331 0.0558065 0)
(20.8109 0.18123 0)
(20.694 0.578972 0)
(20.0496 1.74259 0)
(21.7744 6.81314 0)
(20.8531 2.12658 0)
(20.8057 0.651498 0)
(20.8246 0.199081 0)
(20.8346 0.0608418 0)
(20.8382 0.0185998 0)
(20.8393 0.00568743 0)
(20.8397 0.00174031 0)
(20.8398 0.00053606 0)
(20.8398 0.000176622 0)
(20.8398 9.55257e-05 0)
(20.8399 0.000164972 0)
(20.8399 0.000494415 0)
(20.84 0.00160316 0)
(20.8403 0.00523947 0)
(20.8412 0.017141 0)
(20.8435 0.0561051 0)
(20.8443 0.183614 0)
(20.7957 0.597268 0)
(20.2928 1.86771 0)
(20.6158 6.95871 0)
(20.4612 2.1155 0)
(20.6848 0.640553 0)
(20.7877 0.1948 0)
(20.8233 0.0594194 0)
(20.8347 0.0181511 0)
(20.8383 0.00554852 0)
(20.8394 0.0016976 0)
(20.8397 0.000522877 0)
(20.8398 0.000172275 0)
(20.8398 9.31748e-05 0)
(20.8399 0.000160918 0)
(20.84 0.000482307 0)
(20.8403 0.00156422 0)
(20.8413 0.00511486 0)
(20.8444 0.016755 0)
(20.8539 0.0550202 0)
(20.8785 0.181527 0)
(20.9045 0.602177 0)
(20.5747 1.9669 0)
(19.3721 6.95534 0)
(20.0633 2.05178 0)
(20.5656 0.613527 0)
(20.7519 0.185669 0)
(20.8125 0.0565264 0)
(20.8314 0.0172544 0)
(20.8373 0.00527287 0)
(20.8391 0.00161307 0)
(20.8396 0.000496818 0)
(20.8398 0.000163686 0)
(20.8398 8.85295e-05 0)
(20.8399 0.0001529 0)
(20.8401 0.000458316 0)
(20.8406 0.00148671 0)
(20.8422 0.00486386 0)
(20.8475 0.0159531 0)
(20.8641 0.0525566 0)
(20.9127 0.174844 0)
(21.0189 0.592335 0)
(20.9003 2.03279 0)
(18.0497 6.78445 0)
(19.6684 1.93393 0)
(20.4515 0.570714 0)
(20.7181 0.171871 0)
(20.8023 0.0522293 0)
(20.8283 0.0159314 0)
(20.8363 0.00486718 0)
(20.8388 0.0014888 0)
(20.8395 0.000458522 0)
(20.8398 0.000151066 0)
(20.8398 8.1704e-05 0)
(20.8399 0.000141117 0)
(20.8401 0.000423028 0)
(20.8408 0.0013725 0)
(20.8431 0.00449236 0)
(20.8504 0.0147524 0)
(20.8738 0.0487541 0)
(20.946 0.163549 0)
(21.1368 0.566508 0)
(21.2759 2.05605 0)
(16.6564 6.42568 0)
(19.2866 1.76158 0)
(20.3454 0.512832 0)
(20.6871 0.153711 0)
(20.793 0.0466299 0)
(20.8255 0.0142141 0)
(20.8355 0.00434141 0)
(20.8385 0.00132784 0)
(20.8394 0.000408933 0)
(20.8397 0.000134726 0)
(20.8398 7.28665e-05 0)
(20.8399 0.000125857 0)
(20.8402 0.00037731 0)
(20.8411 0.00122438 0)
(20.8439 0.00400929 0)
(20.853 0.0131809 0)
(20.8827 0.0436892 0)
(20.9774 0.147751 0)
(21.2554 0.523705 0)
(21.7085 2.02484 0)
(15.2011 5.85658 0)
(18.9293 1.53587 0)
(20.2505 0.44105 0)
(20.6598 0.131612 0)
(20.7849 0.0398638 0)
(20.823 0.0121445 0)
(20.8347 0.00370846 0)
(20.8383 0.00113415 0)
(20.8394 0.00034927 0)
(20.8397 0.000115068 0)
(20.8398 6.22345e-05 0)
(20.84 0.000107496 0)
(20.8403 0.000322285 0)
(20.8413 0.00104598 0)
(20.8446 0.00342643 0)
(20.8553 0.0112759 0)
(20.8906 0.0374751 0)
(21.006 0.127704 0)
(21.3714 0.46332 0)
(22.2068 1.92417 0)
(13.6944 5.05226 0)
(18.6097 1.25975 0)
(20.1699 0.356996 0)
(20.637 0.106112 0)
(20.7781 0.0320973 0)
(20.821 0.00977363 0)
(20.8341 0.00298393 0)
(20.8381 0.000912497 0)
(20.8393 0.000281002 0)
(20.8397 9.25758e-05 0)
(20.8398 5.00697e-05 0)
(20.84 8.64859e-05 0)
(20.8403 0.000259308 0)
(20.8415 0.000841699 0)
(20.8452 0.00275812 0)
(20.8573 0.0090842 0)
(20.8973 0.0302605 0)
(21.0306 0.103824 0)
(21.48 0.385353 0)
(22.7812 1.73505 0)
(12.1489 3.98494 0)
(18.3424 0.938479 0)
(20.1063 0.262756 0)
(20.6192 0.0778485 0)
(20.7728 0.0235231 0)
(20.8194 0.00716004 0)
(20.8336 0.00218567 0)
(20.8379 0.000668347 0)
(20.8393 0.000205812 0)
(20.8397 6.78039e-05 0)
(20.8398 3.66718e-05 0)
(20.84 6.33446e-05 0)
(20.8404 0.000189932 0)
(20.8416 0.000616569 0)
(20.8456 0.00202091 0)
(20.8588 0.00666048 0)
(20.9025 0.0222273 0)
(21.0504 0.076694 0)
(21.5753 0.290696 0)
(23.4439 1.43349 0)
(10.5792 2.62341 0)
(18.1444 0.580167 0)
(20.0623 0.160848 0)
(20.6071 0.0475446 0)
(20.7692 0.0143558 0)
(20.8183 0.0043685 0)
(20.8333 0.00133339 0)
(20.8378 0.000407717 0)
(20.8392 0.000125551 0)
(20.8397 4.1362e-05 0)
(20.8398 2.23707e-05 0)
(20.84 3.86422e-05 0)
(20.8404 0.000115868 0)
(20.8417 0.000376162 0)
(20.8459 0.00123315 0)
(20.8598 0.00406602 0)
(20.906 0.0135864 0)
(21.0642 0.0470713 0)
(21.6496 0.181527 0)
(24.2095 0.989098 0)
(9.00286 0.932487 0)
(18.0346 0.196481 0)
(20.0397 0.0541586 0)
(20.6009 0.0159889 0)
(20.7674 0.00482591 0)
(20.8178 0.00146834 0)
(20.8331 0.000448157 0)
(20.8378 0.000137032 0)
(20.8392 4.2197e-05 0)
(20.8397 1.39015e-05 0)
(20.8398 7.51861e-06 0)
(20.84 1.29874e-05 0)
(20.8404 3.89431e-05 0)
(20.8417 0.000126432 0)
(20.8461 0.00041451 0)
(20.8603 0.00136706 0)
(20.9078 0.00457096 0)
(21.0714 0.015871 0)
(21.6931 0.0618407 0)
(25.0956 0.363479 0)
(4.85472 15.8351 0)
(9.30747 7.1241 0)
(8.60114 4.13068 0)
(8.08397 2.55751 0)
(7.72261 1.62598 0)
(7.47156 1.04798 0)
(7.29918 0.680927 0)
(7.18211 0.444712 0)
(7.10331 0.291421 0)
(7.0506 0.191398 0)
(7.01549 0.125895 0)
(6.99217 0.0828926 0)
(6.97673 0.054616 0)
(6.96651 0.0360016 0)
(6.95975 0.0237388 0)
(6.95529 0.0156561 0)
(6.95234 0.0103269 0)
(6.95039 0.0068123 0)
(6.94911 0.00449413 0)
(6.94826 0.00296495 0)
(6.9477 0.00195614 0)
(6.94733 0.0012906 0)
(6.94709 0.000851506 0)
(6.94693 0.000561807 0)
(6.94682 0.000370673 0)
(6.94675 0.000244565 0)
(6.9467 0.000161362 0)
(6.94667 0.000106464 0)
(6.94665 7.02447e-05 0)
(6.94664 4.63463e-05 0)
(6.94663 3.05792e-05 0)
(6.94663 2.01754e-05 0)
(6.94662 1.3312e-05 0)
(6.94662 8.78265e-06 0)
(6.94662 5.79503e-06 0)
(6.94662 3.82298e-06 0)
(6.94662 2.52284e-06 0)
(6.94662 1.66405e-06 0)
(6.94662 1.09826e-06 0)
(6.94661 7.24154e-07 0)
(6.94661 4.7827e-07 0)
(6.94661 3.15139e-07 0)
(6.94661 2.08291e-07 0)
(6.94661 1.36993e-07 0)
(6.94661 9.08918e-08 0)
(6.94661 5.9583e-08 0)
(6.94661 3.96864e-08 0)
(6.94661 2.58328e-08 0)
(6.94661 1.75407e-08 0)
(6.94661 1.12804e-08 0)
(6.94661 7.83118e-09 0)
(6.94661 4.87447e-09 0)
(6.94661 3.71529e-09 0)
(6.94661 2.22002e-09 0)
(6.94661 1.85082e-09 0)
(6.94661 1.03682e-09 0)
(6.94661 1.1589e-09 0)
(6.94661 6.46523e-10 0)
(6.94661 8.13785e-10 0)
(6.94661 4.31584e-10 0)
(6.94661 7.37614e-10 0)
(6.94661 4.40465e-10 0)
(6.94661 6.51923e-10 0)
(6.94661 4.21849e-10 0)
(6.94661 6.65423e-10 0)
(6.94661 4.83311e-10 0)
(6.94661 6.35652e-10 0)
(6.94661 4.72085e-10 0)
(6.94661 6.22258e-10 0)
(6.94661 4.96101e-10 0)
(6.94661 5.46017e-10 0)
(6.94661 4.53824e-10 0)
(6.94661 4.06715e-10 0)
(6.94661 3.76659e-10 0)
(6.94661 1.722e-10 0)
(6.94661 3.61311e-10 0)
(6.94661 -6.24283e-10 0)
(6.94661 -5.05196e-11 0)
(6.94661 -1.25601e-09 0)
(6.94661 2.46402e-09 0)
(4.35135 14.6843 0)
(8.61625 7.18515 0)
(8.31425 4.19567 0)
(7.92621 2.60567 0)
(7.6274 1.66033 0)
(7.41188 1.07194 0)
(7.26104 0.697366 0)
(7.15747 0.455852 0)
(7.08727 0.298906 0)
(7.04011 0.196398 0)
(7.00861 0.129221 0)
(6.98766 0.0850996 0)
(6.97376 0.0560776 0)
(6.96455 0.0369685 0)
(6.95846 0.0243777 0)
(6.95444 0.0160782 0)
(6.95178 0.0106056 0)
(6.95002 0.00699627 0)
(6.94886 0.00461556 0)
(6.9481 0.00304508 0)
(6.94759 0.00200902 0)
(6.94726 0.00132549 0)
(6.94704 0.00087453 0)
(6.9469 0.000577 0)
(6.9468 0.000380697 0)
(6.94674 0.000251179 0)
(6.9467 0.000165725 0)
(6.94667 0.000109344 0)
(6.94665 7.21442e-05 0)
(6.94664 4.76e-05 0)
(6.94663 3.14061e-05 0)
(6.94662 2.07213e-05 0)
(6.94662 1.36718e-05 0)
(6.94662 9.02042e-06 0)
(6.94662 5.95158e-06 0)
(6.94662 3.92669e-06 0)
(6.94662 2.59084e-06 0)
(6.94662 1.70932e-06 0)
(6.94662 1.12781e-06 0)
(6.94661 7.44052e-07 0)
(6.94661 4.90996e-07 0)
(6.94661 3.23914e-07 0)
(6.94661 2.1377e-07 0)
(6.94661 1.41016e-07 0)
(6.94661 9.31597e-08 0)
(6.94661 6.14655e-08 0)
(6.94661 4.06472e-08 0)
(6.94661 2.68389e-08 0)
(6.94661 1.78592e-08 0)
(6.94661 1.18325e-08 0)
(6.94661 7.9406e-09 0)
(6.94661 5.30321e-09 0)
(6.94661 3.69013e-09 0)
(6.94661 2.52982e-09 0)
(6.94661 1.84258e-09 0)
(6.94661 1.33525e-09 0)
(6.94661 1.10433e-09 0)
(6.94661 8.77947e-10 0)
(6.94661 7.91829e-10 0)
(6.94661 6.85247e-10 0)
(6.94661 7.05853e-10 0)
(6.94661 6.52705e-10 0)
(6.94661 6.69189e-10 0)
(6.94661 6.39915e-10 0)
(6.94661 6.82121e-10 0)
(6.94661 6.62297e-10 0)
(6.94661 6.81837e-10 0)
(6.94661 6.5711e-10 0)
(6.94661 6.81837e-10 0)
(6.94661 6.50715e-10 0)
(6.94661 6.41052e-10 0)
(6.94661 5.91491e-10 0)
(6.94661 5.51843e-10 0)
(6.94661 4.83205e-10 0)
(6.94661 3.68754e-10 0)
(6.94661 2.63132e-10 0)
(6.94661 -1.06173e-10 0)
(6.94661 -2.09894e-10 0)
(6.94661 -6.32054e-10 0)
(6.94661 -2.24323e-10 0)
(3.91733 13.6507 0)
(7.99639 7.17575 0)
(8.02871 4.23879 0)
(7.76705 2.64377 0)
(7.53089 1.68911 0)
(7.35119 1.09256 0)
(7.22216 0.711725 0)
(7.13231 0.465671 0)
(7.07088 0.30554 0)
(7.02938 0.200845 0)
(7.00157 0.132187 0)
(6.98303 0.0870707 0)
(6.97071 0.0573844 0)
(6.96254 0.0378334 0)
(6.95714 0.0249497 0)
(6.95356 0.0164561 0)
(6.9512 0.0108551 0)
(6.94964 0.00716106 0)
(6.94861 0.00472433 0)
(6.94793 0.00311687 0)
(6.94748 0.00205639 0)
(6.94719 0.00135675 0)
(6.94699 0.000895158 0)
(6.94686 0.000590611 0)
(6.94678 0.000389677 0)
(6.94672 0.000257105 0)
(6.94669 0.000169635 0)
(6.94666 0.000111924 0)
(6.94665 7.38462e-05 0)
(6.94664 4.87231e-05 0)
(6.94663 3.2147e-05 0)
(6.94662 2.12103e-05 0)
(6.94662 1.39943e-05 0)
(6.94662 9.23332e-06 0)
(6.94662 6.09194e-06 0)
(6.94662 4.01944e-06 0)
(6.94662 2.6519e-06 0)
(6.94662 1.74975e-06 0)
(6.94662 1.15438e-06 0)
(6.94661 7.61713e-07 0)
(6.94661 5.02519e-07 0)
(6.94661 3.31641e-07 0)
(6.94661 2.1877e-07 0)
(6.94661 1.44446e-07 0)
(6.94661 9.5302e-08 0)
(6.94661 6.30034e-08 0)
(6.94661 4.15727e-08 0)
(6.94661 2.75713e-08 0)
(6.94661 1.82304e-08 0)
(6.94661 1.21881e-08 0)
(6.94661 8.09322e-09 0)
(6.94661 5.51822e-09 0)
(6.94661 3.73461e-09 0)
(6.94661 2.66354e-09 0)
(6.94661 1.86262e-09 0)
(6.94661 1.44667e-09 0)
(6.94661 1.0948e-09 0)
(6.94661 9.56888e-10 0)
(6.94661 7.87139e-10 0)
(6.94661 7.67102e-10 0)
(6.94661 6.95408e-10 0)
(6.94661 7.19496e-10 0)
(6.94661 6.72458e-10 0)
(6.94661 7.08482e-10 0)
(6.94661 6.83045e-10 0)
(6.94661 7.16156e-10 0)
(6.94661 6.92921e-10 0)
(6.94661 7.13314e-10 0)
(6.94661 6.98108e-10 0)
(6.94661 6.99174e-10 0)
(6.94661 6.70788e-10 0)
(6.94661 6.40092e-10 0)
(6.94661 5.98099e-10 0)
(6.94661 5.2907e-10 0)
(6.94661 4.40536e-10 0)
(6.94661 2.86065e-10 0)
(6.94661 2.66631e-11 0)
(6.94661 -1.82325e-10 0)
(6.94661 -3.67644e-10 0)
(6.94661 -5.18046e-10 0)
(3.54198 12.7183 0)
(7.43976 7.11105 0)
(7.74775 4.26094 0)
(7.6075 2.67185 0)
(7.4335 1.7123 0)
(7.28971 1.10982 0)
(7.18268 0.723979 0)
(7.1067 0.474147 0)
(7.05417 0.311308 0)
(7.01844 0.20473 0)
(6.99439 0.134785 0)
(6.97831 0.0888006 0)
(6.9676 0.0585328 0)
(6.9605 0.0385942 0)
(6.95579 0.025453 0)
(6.95267 0.0167888 0)
(6.95062 0.0110749 0)
(6.94926 0.00730619 0)
(6.94836 0.00482015 0)
(6.94776 0.00318011 0)
(6.94737 0.00209813 0)
(6.94712 0.0013843 0)
(6.94695 0.000913332 0)
(6.94683 0.000602603 0)
(6.94676 0.00039759 0)
(6.94671 0.000262326 0)
(6.94668 0.00017308 0)
(6.94666 0.000114197 0)
(6.94664 7.53457e-05 0)
(6.94663 4.97126e-05 0)
(6.94663 3.27998e-05 0)
(6.94662 2.16411e-05 0)
(6.94662 1.42784e-05 0)
(6.94662 9.42089e-06 0)
(6.94662 6.21562e-06 0)
(6.94662 4.10116e-06 0)
(6.94662 2.70571e-06 0)
(6.94662 1.78536e-06 0)
(6.94661 1.17779e-06 0)
(6.94661 7.77274e-07 0)
(6.94661 5.12675e-07 0)
(6.94661 3.38445e-07 0)
(6.94661 2.2318e-07 0)
(6.94661 1.47467e-07 0)
(6.94661 9.71941e-08 0)
(6.94661 6.43563e-08 0)
(6.94661 4.2395e-08 0)
(6.94661 2.82175e-08 0)
(6.94661 1.85616e-08 0)
(6.94661 1.24997e-08 0)
(6.94661 8.23377e-09 0)
(6.94661 5.70822e-09 0)
(6.94661 3.77867e-09 0)
(6.94661 2.78078e-09 0)
(6.94661 1.88649e-09 0)
(6.94661 1.54643e-09 0)
(6.94661 1.09026e-09 0)
(6.94661 1.02617e-09 0)
(6.94661 7.88134e-10 0)
(6.94661 8.40856e-10 0)
(6.94661 6.90576e-10 0)
(6.94661 7.79394e-10 0)
(6.94661 6.807e-10 0)
(6.94661 7.7172e-10 0)
(6.94661 6.87734e-10 0)
(6.94661 7.65539e-10 0)
(6.94661 7.07701e-10 0)
(6.94661 7.66107e-10 0)
(6.94661 7.17151e-10 0)
(6.94661 7.45572e-10 0)
(6.94661 7.02265e-10 0)
(6.94661 6.88978e-10 0)
(6.94661 6.44178e-10 0)
(6.94661 5.77565e-10 0)
(6.94661 5.07008e-10 0)
(6.94661 3.23173e-10 0)
(6.94661 1.36993e-10 0)
(6.94661 -1.39506e-10 0)
(6.94661 -1.79003e-10 0)
(6.94661 -6.95597e-10 0)
(3.21642 11.8735 0)
(6.93922 7.00328 0)
(7.47381 4.26339 0)
(7.44847 2.69011 0)
(7.33564 1.7299 0)
(7.22765 1.12369 0)
(7.14271 0.734108 0)
(7.08072 0.481263 0)
(7.0372 0.316198 0)
(7.00732 0.208042 0)
(6.98708 0.137009 0)
(6.9735 0.090285 0)
(6.96444 0.0595198 0)
(6.95841 0.0392488 0)
(6.95441 0.0258864 0)
(6.95177 0.0170754 0)
(6.95002 0.0112643 0)
(6.94886 0.00743129 0)
(6.9481 0.00490274 0)
(6.94759 0.00323463 0)
(6.94726 0.00213411 0)
(6.94704 0.00140804 0)
(6.9469 0.000929002 0)
(6.9468 0.000612943 0)
(6.94674 0.000404412 0)
(6.9467 0.000266827 0)
(6.94667 0.00017605 0)
(6.94665 0.000116156 0)
(6.94664 7.66388e-05 0)
(6.94663 5.05659e-05 0)
(6.94662 3.33627e-05 0)
(6.94662 2.20126e-05 0)
(6.94662 1.45234e-05 0)
(6.94662 9.58264e-06 0)
(6.94662 6.32227e-06 0)
(6.94662 4.17162e-06 0)
(6.94662 2.75211e-06 0)
(6.94662 1.81606e-06 0)
(6.94661 1.19799e-06 0)
(6.94661 7.90692e-07 0)
(6.94661 5.21437e-07 0)
(6.94661 3.44312e-07 0)
(6.94661 2.26988e-07 0)
(6.94661 1.50072e-07 0)
(6.94661 9.883e-08 0)
(6.94661 6.5523e-08 0)
(6.94661 4.31093e-08 0)
(6.94661 2.87744e-08 0)
(6.94661 1.88521e-08 0)
(6.94661 1.27687e-08 0)
(6.94661 8.36067e-09 0)
(6.94661 5.87335e-09 0)
(6.94661 3.82201e-09 0)
(6.94661 2.88324e-09 0)
(6.94661 1.91264e-09 0)
(6.94661 1.63382e-09 0)
(6.94661 1.09168e-09 0)
(6.94661 1.08784e-09 0)
(6.94661 7.94245e-10 0)
(6.94661 9.06155e-10 0)
(6.94661 6.91003e-10 0)
(6.94661 8.32898e-10 0)
(6.94661 6.92992e-10 0)
(6.94661 8.28493e-10 0)
(6.94661 6.96758e-10 0)
(6.94661 8.10942e-10 0)
(6.94661 7.24611e-10 0)
(6.94661 8.14353e-10 0)
(6.94661 7.37508e-10 0)
(6.94661 7.88134e-10 0)
(6.94661 7.32889e-10 0)
(6.94661 7.33387e-10 0)
(6.94661 6.87663e-10 0)
(6.94661 6.22045e-10 0)
(6.94661 5.70513e-10 0)
(6.94661 3.56906e-10 0)
(6.94661 2.58247e-10 0)
(6.94661 -8.82761e-11 0)
(6.94661 2.93099e-11 0)
(6.94661 -8.88907e-10 0)
(2.93321 11.1048 0)
(6.48849 6.86223 0)
(7.20861 4.24761 0)
(7.29081 2.69878 0)
(7.2377 1.74197 0)
(7.16523 1.13417 0)
(7.10237 0.7421 0)
(7.05446 0.487009 0)
(7.02002 0.320198 0)
(6.99604 0.210774 0)
(6.97967 0.138853 0)
(6.96862 0.0915201 0)
(6.96122 0.0603428 0)
(6.95629 0.0397955 0)
(6.95302 0.0262487 0)
(6.95085 0.0173151 0)
(6.94941 0.0114228 0)
(6.94846 0.007536 0)
(6.94783 0.00497189 0)
(6.94742 0.00328028 0)
(6.94715 0.00216425 0)
(6.94696 0.00142793 0)
(6.94685 0.000942125 0)
(6.94677 0.000621603 0)
(6.94672 0.000410126 0)
(6.94668 0.000270598 0)
(6.94666 0.000178538 0)
(6.94664 0.000117798 0)
(6.94663 7.77218e-05 0)
(6.94663 5.12805e-05 0)
(6.94662 3.38341e-05 0)
(6.94662 2.23238e-05 0)
(6.94662 1.47286e-05 0)
(6.94662 9.7181e-06 0)
(6.94662 6.4116e-06 0)
(6.94662 4.23063e-06 0)
(6.94662 2.79097e-06 0)
(6.94662 1.84178e-06 0)
(6.94661 1.21491e-06 0)
(6.94661 8.01927e-07 0)
(6.94661 5.28781e-07 0)
(6.94661 3.49221e-07 0)
(6.94661 2.30185e-07 0)
(6.94661 1.52252e-07 0)
(6.94661 1.00206e-07 0)
(6.94661 6.64973e-08 0)
(6.94661 4.37153e-08 0)
(6.94661 2.92401e-08 0)
(6.94661 1.9101e-08 0)
(6.94661 1.29914e-08 0)
(6.94661 8.47393e-09 0)
(6.94661 6.01091e-09 0)
(6.94661 3.86436e-09 0)
(6.94661 2.96751e-09 0)
(6.94661 1.94177e-09 0)
(6.94661 1.70758e-09 0)
(6.94661 1.09836e-09 0)
(6.94661 1.13822e-09 0)
(6.94661 8.05116e-10 0)
(6.94661 9.61222e-10 0)
(6.94661 6.96687e-10 0)
(6.94661 8.77947e-10 0)
(6.94661 7.08908e-10 0)
(6.94661 8.77307e-10 0)
(6.94661 7.08695e-10 0)
(6.94661 8.49596e-10 0)
(6.94661 7.43583e-10 0)
(6.94661 8.57128e-10 0)
(6.94661 7.59144e-10 0)
(6.94661 8.26681e-10 0)
(6.94661 7.6362e-10 0)
(6.94661 7.75451e-10 0)
(6.94661 7.2955e-10 0)
(6.94661 6.65814e-10 0)
(6.94661 6.29061e-10 0)
(6.94661 3.96589e-10 0)